 
             +---------------------------------------------------+
             |                                                   |
             |                   WANNIER90                       |
             |                                                   |
             +---------------------------------------------------+
             |                                                   |
             |        Welcome to the Maximally-Localized         |
             |        Generalized Wannier Functions code         |
             |            http://www.wannier.org                 |
             |                                                   |
             |                                                   |
             |  Wannier90 Developer Group:                       |
             |    Giovanni Pizzi    (Paul Scherrer Institute)    |
             |    Valerio Vitale    (University of Trieste)      |
             |    David Vanderbilt  (Rutgers University)         |
             |    Nicola Marzari    (EPFL)                       |
             |    Ivo Souza         (Universidad del Pais Vasco) |
             |    Arash A. Mostofi  (Imperial College London)    |
             |    Jonathan R. Yates (University of Oxford)       |
             |                                                   |
             |  For the full list of Wannier90 3.x authors,      |
             |  please check the code documentation and the      |
             |  README on the GitHub page of the code            |
             |                                                   |
             |                                                   |
             |  Please cite                                      |
             |                                                   |
             |  [ref] "Wannier90 as a community code:            |
             |        new features and applications",            |
             |        G. Pizzi et al., J. Phys. Cond. Matt. 32,  |
             |        165902 (2020).                             |
             |        http://doi.org/10.1088/1361-648X/ab51ff    |
             |                                                   |
             |  in any publications arising from the use of      |
             |  this code. For the method please cite            |
             |                                                   |
             |  [ref] "Maximally Localized Generalised Wannier   |
             |         Functions for Composite Energy Bands"     |
             |         N. Marzari and D. Vanderbilt              |
             |         Phys. Rev. B 56 12847 (1997)              |
             |                                                   |
             |  [ref] "Maximally Localized Wannier Functions     |
             |         for Entangled Energy Bands"               |
             |         I. Souza, N. Marzari and D. Vanderbilt    |
             |         Phys. Rev. B 65 035109 (2001)             |
             |                                                   |
             |                                                   |
             | Copyright (c) 1996-2020                           |
             |        The Wannier90 Developer Group and          |
             |        individual contributors                    |
             |                                                   |
             |      Release: 3.1.0        5th March    2020      |
             |                                                   |
             | This program is free software; you can            |
             | redistribute it and/or modify it under the terms  |
             | of the GNU General Public License as published by |
             | the Free Software Foundation; either version 2 of |
             | the License, or (at your option) any later version|
             |                                                   |
             | This program is distributed in the hope that it   |
             | will be useful, but WITHOUT ANY WARRANTY; without |
             | even the implied warranty of MERCHANTABILITY or   |
             | FITNESS FOR A PARTICULAR PURPOSE. See the GNU     |
             | General Public License for more details.          |
             |                                                   |
             | You should have received a copy of the GNU General|
             | Public License along with this program; if not,   |
             | write to the Free Software Foundation, Inc.,      |
             | 675 Mass Ave, Cambridge, MA 02139, USA.           |
             |                                                   |
             +---------------------------------------------------+
             |    Execution started on  7Dec2024 at 04:15:36     |
             +---------------------------------------------------+
 
 ******************************************************************************
 * -> Using CODATA 2006 constant values                                       *
 *    (http://physics.nist.gov/cuu/Constants/index.html)                      *
 * -> Using Bohr value from CODATA                                            *
 ******************************************************************************
 

 Running in serial (with serial executable)
 
                                    ------
                                    SYSTEM
                                    ------
 
                              Lattice Vectors (Ang)
                    a_1     4.457000   0.000000   0.000000
                    a_2    -2.228500   3.859875   0.000000
                    a_3     0.000000   0.000000   5.958118
 
                   Unit Cell Volume:     102.50026  (Ang^3)
 
                        Reciprocal-Space Vectors (Ang^-1)
                    b_1     1.409734   0.813910   0.000000
                    b_2     0.000000   1.627821   0.000000
                    b_3     0.000000   0.000000   1.054559
  
 *----------------------------------------------------------------------------*
 |   Site       Fractional Coordinate          Cartesian Coordinate (Ang)     |
 +----------------------------------------------------------------------------+
 | te   1   0.27404   0.27404   0.00000   |    0.61069   1.05774   0.00000    |
 | te   2  -0.27404   0.00000   0.33333   |   -1.22138   0.00000   1.98604    |
 | te   3   0.00000  -0.27404   0.66667   |    0.61069  -1.05774   3.97208    |
 *----------------------------------------------------------------------------*
                                ------------
                                K-POINT GRID
                                ------------
  
             Grid size =  2 x  2 x  2      Total points =    8
  
  
 *---------------------------------- MAIN ------------------------------------*
 |  Number of Wannier Functions               :                 9             |
 |  Number of Objective Wannier Functions     :                 9             |
 |  Number of input Bloch states              :                12             |
 |  Output verbosity (1=low, 5=high)          :                 1             |
 |  Timing Level (1=low, 5=high)              :                 1             |
 |  Optimisation (0=memory, 3=speed)          :                 3             |
 |  Length Unit                               :               Ang             |
 |  Post-processing setup (write *.nnkp)      :                 F             |
 |  Using Gamma-only branch of algorithms     :                 F             |
 *----------------------------------------------------------------------------*
 *------------------------------- WANNIERISE ---------------------------------*
 |  Total number of iterations                :                 0             |
 |  Number of CG steps before reset           :                 5             |
 |  Trial step length for line search         :             2.000             |
 |  Convergence tolerence                     :         0.100E-09             |
 |  Convergence window                        :                -1             |
 |  Iterations between writing output         :                 1             |
 |  Iterations between backing up to disk     :               100             |
 |  Write r^2_nm to file                      :                 F             |
 |  Write xyz WF centres to file              :                 F             |
 |  Write on-site energies <0n|H|0n> to file  :                 F             |
 |  Use guiding centre to control phases      :                 T             |
 |  Use phases for initial projections        :                 F             |
 |  Iterations before starting guiding centres:                 0             |
 |  Iterations between using guiding centres  :                 1             |
 *----------------------------------------------------------------------------*
 *------------------------------- DISENTANGLE --------------------------------*
 |  Using band disentanglement                :                 T             |
 |  Total number of iterations                :                 0             |
 |  Mixing ratio                              :             0.500             |
 |  Convergence tolerence                     :         1.000E-10             |
 |  Convergence window                        :                 3             |
 *----------------------------------------------------------------------------*
 *------------------------------ CLOSESTWANNIER ------------------------------*
 |  Using closest Wannier method              :                 T             |
 |  Lower bound of the energy window                       -0.500             |
 |  Upper bound of the energy window                       10.000             |
 |  Smearing temperature for the lower bound                0.000             |
 |  Smearing temperature for the upper bound                0.500             |
 |  Small constant to avoid ill-conditioning            1.000E-12             |
 *----------------------------------------------------------------------------*
 *-------------------------------- PLOTTING ----------------------------------*
 |  Plotting interpolated bandstructure       :                 T             |
 |   Number of K-path sections                :                 9             |
 |   Divisions along first K-path section     :                50             |
 |   Output format                            :           gnuplot             |
 |   Output mode                              :               s-k             |
 *----------------------------------------------------------------------------*
 |   K-space path sections:                                                   |
 |    From: A       0.000  0.000  0.500     To: G       0.000  0.000  0.000   |
 |    From: G       0.000  0.000  0.000     To: H       0.333  0.333  0.500   |
 |    From: H       0.333  0.333  0.500     To: A       0.000  0.000  0.500   |
 |    From: A       0.000  0.000  0.500     To: L       0.500  0.000  0.500   |
 |    From: L       0.500  0.000  0.500     To: H       0.333  0.333  0.500   |
 |    From: H       0.333  0.333  0.500     To: K       0.333  0.333  0.000   |
 |    From: K       0.333  0.333  0.000     To: G       0.000  0.000  0.000   |
 |    From: G       0.000  0.000  0.000     To: M       0.500  0.000  0.000   |
 |    From: M       0.500  0.000  0.000     To: K       0.333  0.333  0.000   |
 *----------------------------------------------------------------------------*

 *---------------------------------- K-MESH ----------------------------------*
 +----------------------------------------------------------------------------+
 |                    Distance to Nearest-Neighbour Shells                    |
 |                    ------------------------------------                    |
 |          Shell             Distance (Ang^-1)          Multiplicity         |
 |          -----             -----------------          ------------         |
 |             1                   0.527279                      2            |
 |             2                   0.813910                      6            |
 |             3                   0.969780                     12            |
 |             4                   1.054559                      2            |
 |             5                   1.332120                     12            |
 |             6                   1.409734                      6            |
 |             7                   1.505116                     12            |
 |             8                   1.581838                      2            |
 |             9                   1.627821                      6            |
 |            10                   1.711089                     12            |
 |            11                   1.760524                     12            |
 |            12                   1.778950                     12            |
 +----------------------------------------------------------------------------+
 | The b-vectors are chosen automatically                                     |
 | The following shells and their multiples are used:   1,  2                 |
 +----------------------------------------------------------------------------+
 |                        Shell   # Nearest-Neighbours                        |
 |                        -----   --------------------                        |
 |                          1               2                                 |
 |                          2               6                                 |
 +----------------------------------------------------------------------------+
 | Completeness relation is fully satisfied [Eq. (B1), PRB 56, 12847 (1997)]  |
 +----------------------------------------------------------------------------+
 |                  b_k Vectors (Ang^-1) and Weights (Ang^2)                  |
 |                  ----------------------------------------                  |
 |            No.         b_k(x)      b_k(y)      b_k(z)        w_b           |
 |            ---        --------------------------------     --------        |
 |             1         0.000000    0.000000    0.527279     1.798409        |
 |             2         0.000000    0.000000   -0.527279     1.798409        |
 |             3         0.000000    0.813910    0.000000     0.503183        |
 |             4         0.704867    0.406955    0.000000     0.503183        |
 |             5         0.000000   -0.813910    0.000000     0.503183        |
 |             6         0.704867   -0.406955    0.000000     0.503183        |
 |             7        -0.704867   -0.406955    0.000000     0.503183        |
 |             8        -0.704867    0.406955    0.000000     0.503183        |
 +----------------------------------------------------------------------------+
 |                           b_k Directions (Ang^-1)                          |
 |                           -----------------------                          |
 |            No.           x           y           z                         |
 |            ---        --------------------------------                     |
 |             1         0.000000    0.000000    0.527279                     |
 |             2         0.000000    0.813910    0.000000                     |
 |             3         0.704867    0.406955    0.000000                     |
 |             4         0.704867   -0.406955    0.000000                     |
 +----------------------------------------------------------------------------+
  
 Starting a new Wannier90 calculation ...


 Reading overlaps from Te.mmn    :  Created on  3Jan2018 at 14:37:27

 Reading projections from Te.amn :  Created on  3Jan2018 at 14:37:27

 Multiply window function by Amn according to the closest Wannier method : 
 mu_max    =     10.000 eV
 mu_min    =     -0.500 eV
 sigma_max =     0.500 eV
 sigma_min =     0.000 eV
 delta     =     0.000 eV


 *------------------------------- DISENTANGLE --------------------------------*
 +----------------------------------------------------------------------------+
 |                              Energy  Windows                               |
 |                              ---------------                               |
 |                   Outer:   -7.49994  to    8.98314  (eV)                   |
 |                   No frozen states were specified                          |
 +----------------------------------------------------------------------------+
   Number of target bands to extract:    9

                   Unitarised projection of Wannier functions                  
                   ------------------------------------------                  
   A_mn = <psi_m|g_n> --> S = A.A^+ --> U = S^-1/2.A
   In dis_project... done
   No inner window (linner = F)

                   Extraction of optimally-connected subspace                  
                   ------------------------------------------                  
 +---------------------------------------------------------------------+<-- DIS
 |  Iter     Omega_I(i-1)      Omega_I(i)      Delta (frac.)    Time   |<-- DIS
 +---------------------------------------------------------------------+<-- DIS

     <<< Warning: Maximum number of disentanglement iterations reached >>>
          <<< Disentanglement convergence criteria not satisfied >>>

        Final Omega_I     0.00000000 (Ang^2)

 +----------------------------------------------------------------------------+


 Writing checkpoint file Te.chk... done

 
 *------------------------------- WANNIERISE ---------------------------------*
 +--------------------------------------------------------------------+<-- CONV
 | Iter  Delta Spread     RMS Gradient      Spread (Ang^2)      Time  |<-- CONV
 +--------------------------------------------------------------------+<-- CONV
 
 ------------------------------------------------------------------------------
 Initial State
  WF centre and spread    1  (  0.593066,  1.062902, -0.010564 )     2.85799906
  WF centre and spread    2  (  0.659438,  1.061951,  0.000810 )     2.71654750
  WF centre and spread    3  (  0.597944,  1.069122,  0.009579 )     2.51903373
  WF centre and spread    4  ( -1.252080, -0.022334,  1.974077 )     2.93207521
  WF centre and spread    5  ( -1.259457,  0.043399,  1.986878 )     2.69173494
  WF centre and spread    6  ( -1.174953, -0.015569,  1.991758 )     2.49070208
  WF centre and spread    7  (  0.599855, -1.079238,  3.935088 )     2.90112666
  WF centre and spread    8  (  0.639278, -1.079580,  3.971807 )     2.70440914
  WF centre and spread    9  (  0.615238, -1.028162,  4.024682 )     2.51230533
  Sum of centres and spreads (  0.018328,  0.012490, 17.884115 )    24.32593365
 
      0     0.243E+02     0.0000000000       24.3259336491       0.00  <-- CONV
        O_D=      0.0957679 O_OD=      4.8965950 O_TOT=     24.3259336 <-- SPRD
 ------------------------------------------------------------------------------
 Final State
  WF centre and spread    1  (  0.593066,  1.062902, -0.010564 )     2.85799906
  WF centre and spread    2  (  0.659438,  1.061951,  0.000810 )     2.71654750
  WF centre and spread    3  (  0.597944,  1.069122,  0.009579 )     2.51903373
  WF centre and spread    4  ( -1.252080, -0.022334,  1.974077 )     2.93207521
  WF centre and spread    5  ( -1.259457,  0.043399,  1.986878 )     2.69173494
  WF centre and spread    6  ( -1.174953, -0.015569,  1.991758 )     2.49070208
  WF centre and spread    7  (  0.599855, -1.079238,  3.935088 )     2.90112666
  WF centre and spread    8  (  0.639278, -1.079580,  3.971807 )     2.70440914
  WF centre and spread    9  (  0.615238, -1.028162,  4.024682 )     2.51230533
  Sum of centres and spreads (  0.018328,  0.012490, 17.884115 )    24.32593365
 
         Spreads (Ang^2)       Omega I      =    19.333570693
        ================       Omega D      =     0.095767912
                               Omega OD     =     4.896595044
    Final Spread (Ang^2)       Omega Total  =    24.325933649
 ------------------------------------------------------------------------------

 Writing checkpoint file Te.chk... done

 *---------------------------------------------------------------------------*
 |                               PLOTTING                                    |
 *---------------------------------------------------------------------------*
 
 
 Calculating interpolated band-structure
 
 Time to calculate interpolated band structure       0.017 (sec)
 

 *===========================================================================*
 |                             TIMING INFORMATION                            |
 *===========================================================================*
 |    Tag                                                Ncalls      Time (s)|
 |---------------------------------------------------------------------------|
 |kmesh: get                                        :         1         0.007|
 |overlap: read                                     :         1         0.007|
 |dis: main                                         :         1         0.001|
 |wann: main                                        :         1         0.000|
 |plot: main                                        :         1         0.017|
 *---------------------------------------------------------------------------*
